9835049
     RDKit          2D

 17 18  0  0  1  0  0  0  0  0999 V2000
    8.6610   -1.3724    0.0000 S   0  0  0  0  0  0  0  0  0  0  0  0
    7.6610   -1.3724    0.0000 O   0  0  0  0  0  0  0  0  0  0  0  0
    8.2858    0.9595    0.0000 O   0  0  0  0  0  0  0  0  0  0  0  0
    3.7466    2.3724    0.0000 O   0  0  0  0  0  0  0  0  0  0  0  0
    9.6610   -1.3724    0.0000 O   0  0  0  0  0  0  0  0  0  0  0  0
    8.6610   -2.3724    0.0000 O   0  0  0  0  0  0  0  0  0  0  0  0
    8.6610   -0.3724    0.0000 O   0  0  0  0  0  0  0  0  0  0  0  0
    6.0209    0.9684    0.0000 N   0  0  0  0  0  0  0  0  0  0  0  0
    7.1610   -0.5064    0.0000 N   0  0  0  0  0  0  0  0  0  0  0  0
    2.3817    1.3061    0.0000 N   0  0  0  0  0  0  0  0  0  0  0  0
    5.7621    0.0024    0.0000 C   0  0  0  0  0  0  0  0  0  0  0  0
    5.2843    1.9510    0.0000 C   0  0  0  0  0  0  0  0  0  0  0  0
    4.5410   -0.8632    0.0000 C   0  0  0  0  0  0  0  0  0  0  0  0
    3.9876    0.6572    0.0000 C   0  0  0  0  0  0  0  0  0  0  0  0
    3.7120   -0.3040    0.0000 C   0  0  0  0  0  0  0  0  0  0  0  0
    7.4198    0.4595    0.0000 C   0  0  0  0  0  0  0  0  0  0  0  0
    3.3720    1.4452    0.0000 C   0  0  0  0  0  0  0  0  0  0  0  0
  1  2  1  0
  1  5  1  0
  1  6  2  0
  1  7  2  0
  2  9  1  0
  3 16  2  0
  4 17  2  0
  8 12  1  0
  8 14  1  0
  8 16  1  0
  9 11  1  0
  9 16  1  0
 10 17  1  0
 11 12  1  0
 11 13  1  6
 13 15  1  0
 14 15  1  0
 14 17  1  1
M  END
>  <PUBCHEM_COMPOUND_CID>  (1) 
9835049

>  <PUBCHEM_COMPOUND_CANONICALIZED>  (1) 
1

>  <PUBCHEM_CACTVS_COMPLEXITY>  (1) 
457

>  <PUBCHEM_CACTVS_HBOND_ACCEPTOR>  (1) 
6

>  <PUBCHEM_CACTVS_HBOND_DONOR>  (1) 
2

>  <PUBCHEM_CACTVS_ROTATABLE_BOND>  (1) 
3

>  <PUBCHEM_CACTVS_SUBSKEYS>  (1) 
AAADccBjOABAAAAAAAAAAAAAAAAAAWAAAAAsAAAABYAAAAAAAAAAHgAUCAAACCjBgAQBAANQAIAIAAEQEDAAAAAAAAAgAAGIAACAQBIAgCAUAAAIFgKAAAEYCQAQAAAAAAAAAAAAAAAAAAAAAAAAAAAAAA==

>  <PUBCHEM_IUPAC_OPENEYE_NAME>  (1) 
[(2S,5R)-2-carbamoyl-7-oxo-1,6-diazabicyclo[3.2.1]octan-6-yl] hydrogen sulfate

>  <PUBCHEM_IUPAC_CAS_NAME>  (1) 
sulfuric acid [(2S,5R)-2-carbamoyl-7-oxo-1,6-diazabicyclo[3.2.1]octan-6-yl] ester

>  <PUBCHEM_IUPAC_NAME_MARKUP>  (1) 
[(2<I>S</I>,5<I>R</I>)-2-carbamoyl-7-oxo-1,6-diazabicyclo[3.2.1]octan-6-yl] hydrogen sulfate

>  <PUBCHEM_IUPAC_NAME>  (1) 
[(2S,5R)-2-carbamoyl-7-oxo-1,6-diazabicyclo[3.2.1]octan-6-yl] hydrogen sulfate

>  <PUBCHEM_IUPAC_SYSTEMATIC_NAME>  (1) 
[(2S,5R)-2-aminocarbonyl-7-oxidanylidene-1,6-diazabicyclo[3.2.1]octan-6-yl] hydrogen sulfate

>  <PUBCHEM_IUPAC_TRADITIONAL_NAME>  (1) 
sulfuric acid [(2S,5R)-2-carbamoyl-7-keto-1,6-diazabicyclo[3.2.1]octan-6-yl] ester

>  <PUBCHEM_IUPAC_INCHI>  (1) 
InChI=1S/C7H11N3O6S/c8-6(11)5-2-1-4-3-9(5)7(12)10(4)16-17(13,14)15/h4-5H,1-3H2,(H2,8,11)(H,13,14,15)/t4-,5+/m1/s1

>  <PUBCHEM_IUPAC_INCHIKEY>  (1) 
NDCUAPJVLWFHHB-UHNVWZDZSA-N

>  <PUBCHEM_XLOGP3_AA>  (1) 
-1.8

>  <PUBCHEM_EXACT_MASS>  (1) 
265.03685625

>  <PUBCHEM_MOLECULAR_FORMULA>  (1) 
C7H11N3O6S

>  <PUBCHEM_MOLECULAR_WEIGHT>  (1) 
265.25

>  <PUBCHEM_OPENEYE_CAN_SMILES>  (1) 
C1CC(N2CC1N(C2=O)OS(=O)(=O)O)C(=O)N

>  <PUBCHEM_OPENEYE_ISO_SMILES>  (1) 
C1C[C@H](N2C[C@@H]1N(C2=O)OS(=O)(=O)O)C(=O)N

>  <PUBCHEM_CACTVS_TPSA>  (1) 
139

>  <PUBCHEM_MONOISOTOPIC_WEIGHT>  (1) 
265.03685625

>  <PUBCHEM_TOTAL_CHARGE>  (1) 
0

>  <PUBCHEM_HEAVY_ATOM_COUNT>  (1) 
17

>  <PUBCHEM_ATOM_DEF_STEREO_COUNT>  (1) 
2

>  <PUBCHEM_ATOM_UDEF_STEREO_COUNT>  (1) 
0

>  <PUBCHEM_BOND_DEF_STEREO_COUNT>  (1) 
0

>  <PUBCHEM_BOND_UDEF_STEREO_COUNT>  (1) 
0

>  <PUBCHEM_ISOTOPIC_ATOM_COUNT>  (1) 
0

>  <PUBCHEM_COMPONENT_COUNT>  (1) 
1

>  <PUBCHEM_CACTVS_TAUTO_COUNT>  (1) 
-1

>  <PUBCHEM_COORDINATE_TYPE>  (1) 
1
5
255

>  <PUBCHEM_BONDANNOTATIONS>  (1) 
11  18  5
14  17  5

$$$$
104838
     RDKit          2D

 20 21  0  0  1  0  0  0  0  0999 V2000
    7.2192   -0.2887    0.0000 S   0  0  0  0  0  0  0  0  0  0  0  0
    3.2273    1.8894    0.0000 O   0  0  0  0  0  0  0  0  0  0  0  0
    2.9665   -1.5014    0.0000 O   0  0  0  0  0  0  0  0  0  0  0  0
    6.9186   -2.2567    0.0000 O   0  0  0  0  0  0  0  0  0  0  0  0
    5.2713   -2.7919    0.0000 O   0  0  0  0  0  0  0  0  0  0  0  0
    4.6804   -0.7887    0.0000 N   0  0  0  0  0  0  0  0  0  0  0  0
    9.2192    1.4434    0.0000 N   0  0  0  0  0  0  0  0  0  0  0  0
   10.7192    2.3094    0.0000 N   0  0  0  0  0  0  0  0  0  0  0  0
    4.6804    0.2113    0.0000 C   0  0  0  0  0  0  0  0  0  0  0  0
    3.6721    0.2155    0.0000 C   0  0  0  0  0  0  0  0  0  0  0  0
    5.6314    0.5203    0.0000 C   0  0  0  0  0  0  0  0  0  0  0  0
    3.6721   -0.7928    0.0000 C   0  0  0  0  0  0  0  0  0  0  0  0
    2.9665    0.9240    0.0000 C   0  0  0  0  0  0  0  0  0  0  0  0
    5.6314   -1.0977    0.0000 C   0  0  0  0  0  0  0  0  0  0  0  0
    6.2192   -0.2887    0.0000 C   0  0  0  0  0  0  0  0  0  0  0  0
    2.0000    0.6672    0.0000 C   0  0  0  0  0  0  0  0  0  0  0  0
    5.9405   -2.0488    0.0000 C   0  0  0  0  0  0  0  0  0  0  0  0
    7.7192    0.5773    0.0000 C   0  0  0  0  0  0  0  0  0  0  0  0
    8.7192    0.5773    0.0000 C   0  0  0  0  0  0  0  0  0  0  0  0
   10.2192    1.4434    0.0000 C   0  0  0  0  0  0  0  0  0  0  0  0
  1 15  1  0
  1 18  1  0
 13  2  1  0
  3 12  2  0
  4 17  1  0
  5 17  2  0
  6  9  1  0
  6 12  1  0
  6 14  1  0
  7 19  1  0
  7 20  2  0
  8 20  1  0
  9 10  1  0
  9 11  1  1
 10 12  1  6
 10 13  1  0
 11 15  1  0
 13 16  1  1
 14 15  2  0
 14 17  1  0
 18 19  1  0
M  END
>  <PUBCHEM_COMPOUND_CID>  (2) 
104838

>  <PUBCHEM_COMPOUND_CANONICALIZED>  (2) 
1

>  <PUBCHEM_CACTVS_COMPLEXITY>  (2) 
491

>  <PUBCHEM_CACTVS_HBOND_ACCEPTOR>  (2) 
6

>  <PUBCHEM_CACTVS_HBOND_DONOR>  (2) 
3

>  <PUBCHEM_CACTVS_ROTATABLE_BOND>  (2) 
6

>  <PUBCHEM_CACTVS_SUBSKEYS>  (2) 
AAADceBzOABAAAAAAAAAAAAAAABYAQAAAAAAAAAABAAAAAAAAAAAHgQQCAAADTzlwAaDCANAAgioAAXRfAAAAAEgABAACIGIAEgCFB4ggCAEUAAGpgC4EQOYAAAOAAAAAAAAAAAAAAAAAAAAAAAAAAAAAA==

>  <PUBCHEM_IUPAC_OPENEYE_NAME>  (2) 
(5R,6S)-3-[2-(aminomethyleneamino)ethylsulfanyl]-6-[(1R)-1-hydroxyethyl]-7-oxo-1-azabicyclo[3.2.0]hept-2-ene-2-carboxylic acid

>  <PUBCHEM_IUPAC_CAS_NAME>  (2) 
(5R,6S)-3-[2-(aminomethylideneamino)ethylthio]-6-[(1R)-1-hydroxyethyl]-7-oxo-1-azabicyclo[3.2.0]hept-2-ene-2-carboxylic acid

>  <PUBCHEM_IUPAC_NAME_MARKUP>  (2) 
(5<I>R</I>,6<I>S</I>)-3-[2-(aminomethylideneamino)ethylsulfanyl]-6-[(1<I>R</I>)-1-hydroxyethyl]-7-oxo-1-azabicyclo[3.2.0]hept-2-ene-2-carboxylic acid

>  <PUBCHEM_IUPAC_NAME>  (2) 
(5R,6S)-3-[2-(aminomethylideneamino)ethylsulfanyl]-6-[(1R)-1-hydroxyethyl]-7-oxo-1-azabicyclo[3.2.0]hept-2-ene-2-carboxylic acid

>  <PUBCHEM_IUPAC_SYSTEMATIC_NAME>  (2) 
(5R,6S)-3-[2-(azanylmethylideneamino)ethylsulfanyl]-6-[(1R)-1-oxidanylethyl]-7-oxidanylidene-1-azabicyclo[3.2.0]hept-2-ene-2-carboxylic acid

>  <PUBCHEM_IUPAC_TRADITIONAL_NAME>  (2) 
(5R,6S)-3-[2-(aminomethyleneamino)ethylthio]-6-[(1R)-1-hydroxyethyl]-7-keto-1-azabicyclo[3.2.0]hept-2-ene-2-carboxylic acid

>  <PUBCHEM_IUPAC_INCHI>  (2) 
InChI=1S/C12H17N3O4S/c1-6(16)9-7-4-8(20-3-2-14-5-13)10(12(18)19)15(7)11(9)17/h5-7,9,16H,2-4H2,1H3,(H2,13,14)(H,18,19)/t6-,7-,9-/m1/s1

>  <PUBCHEM_IUPAC_INCHIKEY>  (2) 
ZSKVGTPCRGIANV-ZXFLCMHBSA-N

>  <PUBCHEM_XLOGP3_AA>  (2) 
-0.7

>  <PUBCHEM_EXACT_MASS>  (2) 
299.09397721

>  <PUBCHEM_MOLECULAR_FORMULA>  (2) 
C12H17N3O4S

>  <PUBCHEM_MOLECULAR_WEIGHT>  (2) 
299.35

>  <PUBCHEM_OPENEYE_CAN_SMILES>  (2) 
CC(C1C2CC(=C(N2C1=O)C(=O)O)SCCN=CN)O

>  <PUBCHEM_OPENEYE_ISO_SMILES>  (2) 
C[C@H]([C@@H]1[C@H]2CC(=C(N2C1=O)C(=O)O)SCCN=CN)O

>  <PUBCHEM_CACTVS_TPSA>  (2) 
142

>  <PUBCHEM_MONOISOTOPIC_WEIGHT>  (2) 
299.09397721

>  <PUBCHEM_TOTAL_CHARGE>  (2) 
0

>  <PUBCHEM_HEAVY_ATOM_COUNT>  (2) 
20

>  <PUBCHEM_ATOM_DEF_STEREO_COUNT>  (2) 
3

>  <PUBCHEM_ATOM_UDEF_STEREO_COUNT>  (2) 
0

>  <PUBCHEM_BOND_DEF_STEREO_COUNT>  (2) 
0

>  <PUBCHEM_BOND_UDEF_STEREO_COUNT>  (2) 
0

>  <PUBCHEM_ISOTOPIC_ATOM_COUNT>  (2) 
0

>  <PUBCHEM_COMPONENT_COUNT>  (2) 
1

>  <PUBCHEM_CACTVS_TAUTO_COUNT>  (2) 
-1

>  <PUBCHEM_COORDINATE_TYPE>  (2) 
1
5
255

>  <PUBCHEM_BONDANNOTATIONS>  (2) 
10  22  5
13  2  5
9  21  6

$$$$
441130
     RDKit          2D

 26 28  0  0  1  0  0  0  0  0999 V2000
    7.6567   -1.2340    0.0000 S   0  0  0  0  0  0  0  0  0  0  0  0
    3.4040   -2.4466    0.0000 O   0  0  0  0  0  0  0  0  0  0  0  0
    2.4375   -0.2781    0.0000 O   0  0  0  0  0  0  0  0  0  0  0  0
    7.3561   -3.2019    0.0000 O   0  0  0  0  0  0  0  0  0  0  0  0
    5.7088   -3.7372    0.0000 O   0  0  0  0  0  0  0  0  0  0  0  0
    7.4751    2.6160    0.0000 O   0  0  0  0  0  0  0  0  0  0  0  0
    5.1179   -1.7340    0.0000 N   0  0  0  0  0  0  0  0  0  0  0  0
    9.3592    0.7148    0.0000 N   0  0  0  0  0  0  0  0  0  0  0  0
    9.1976    2.7971    0.0000 N   0  0  0  0  0  0  0  0  0  0  0  0
    5.1179   -0.7339    0.0000 C   0  0  0  0  0  0  0  0  0  0  0  0
    4.1096   -0.7298    0.0000 C   0  0  0  0  0  0  0  0  0  0  0  0
    6.0690   -0.4249    0.0000 C   0  0  0  0  0  0  0  0  0  0  0  0
    4.1096   -1.7381    0.0000 C   0  0  0  0  0  0  0  0  0  0  0  0
    6.6567   -1.2340    0.0000 C   0  0  0  0  0  0  0  0  0  0  0  0
    6.0690   -2.0430    0.0000 C   0  0  0  0  0  0  0  0  0  0  0  0
    3.4040   -0.0212    0.0000 C   0  0  0  0  0  0  0  0  0  0  0  0
    6.3780    0.5261    0.0000 C   0  0  0  0  0  0  0  0  0  0  0  0
    8.1567   -0.3679    0.0000 C   0  0  0  0  0  0  0  0  0  0  0  0
    7.7500    0.5456    0.0000 C   0  0  0  0  0  0  0  0  0  0  0  0
    3.6648    0.9442    0.0000 C   0  0  0  0  0  0  0  0  0  0  0  0
    9.1513   -0.2634    0.0000 C   0  0  0  0  0  0  0  0  0  0  0  0
    8.4931    1.2148    0.0000 C   0  0  0  0  0  0  0  0  0  0  0  0
    6.3780   -2.9940    0.0000 C   0  0  0  0  0  0  0  0  0  0  0  0
    8.3886    2.2093    0.0000 C   0  0  0  0  0  0  0  0  0  0  0  0
    9.0931    3.7916    0.0000 C   0  0  0  0  0  0  0  0  0  0  0  0
   10.1112    2.3903    0.0000 C   0  0  0  0  0  0  0  0  0  0  0  0
  1 14  1  0
 18  1  1  1
  2 13  2  0
 16  3  1  0
  4 23  1  0
  5 23  2  0
  6 24  2  0
 10  7  1  1
  7 13  1  0
  7 15  1  0
  8 21  1  0
  8 22  1  0
  9 24  1  0
  9 25  1  0
  9 26  1  0
 10 11  1  0
 10 12  1  0
 11 13  1  6
 11 16  1  0
 12 14  1  0
 12 17  1  1
 14 15  2  0
 15 23  1  0
 16 20  1  6
 18 19  1  0
 18 21  1  0
 19 22  1  0
 22 24  1  1
M  END
>  <PUBCHEM_COMPOUND_CID>  (3) 
441130

>  <PUBCHEM_COMPOUND_CANONICALIZED>  (3) 
1

>  <PUBCHEM_CACTVS_COMPLEXITY>  (3) 
679

>  <PUBCHEM_CACTVS_HBOND_ACCEPTOR>  (3) 
7

>  <PUBCHEM_CACTVS_HBOND_DONOR>  (3) 
3

>  <PUBCHEM_CACTVS_ROTATABLE_BOND>  (3) 
5

>  <PUBCHEM_CACTVS_SUBSKEYS>  (3) 
AAADceB7OABAAAAAAAAAAAAAAABYAWIAAAAAAAAABAAAAAAAAAAAHgQQCAAADTzlwAaCCAPAAgiIAAXQWAAAAAAgABAACIGIAEgCVB4ggCAUUAAGtgC4EQOYAQAOAAAAAAAAAAAAAAAAAAAAAAAAAAAAAA==

>  <PUBCHEM_IUPAC_OPENEYE_NAME>  (3) 
(4R,5S,6S)-3-[(3S,5S)-5-(dimethylcarbamoyl)pyrrolidin-3-yl]sulfanyl-6-[(1R)-1-hydroxyethyl]-4-methyl-7-oxo-1-azabicyclo[3.2.0]hept-2-ene-2-carboxylic acid

>  <PUBCHEM_IUPAC_CAS_NAME>  (3) 
(4R,5S,6S)-3-[[(3S,5S)-5-[dimethylamino(oxo)methyl]-3-pyrrolidinyl]thio]-6-[(1R)-1-hydroxyethyl]-4-methyl-7-oxo-1-azabicyclo[3.2.0]hept-2-ene-2-carboxylic acid

>  <PUBCHEM_IUPAC_NAME_MARKUP>  (3) 
(4<I>R</I>,5<I>S</I>,6<I>S</I>)-3-[(3<I>S</I>,5<I>S</I>)-5-(dimethylcarbamoyl)pyrrolidin-3-yl]sulfanyl-6-[(1<I>R</I>)-1-hydroxyethyl]-4-methyl-7-oxo-1-azabicyclo[3.2.0]hept-2-ene-2-carboxylic acid

>  <PUBCHEM_IUPAC_NAME>  (3) 
(4R,5S,6S)-3-[(3S,5S)-5-(dimethylcarbamoyl)pyrrolidin-3-yl]sulfanyl-6-[(1R)-1-hydroxyethyl]-4-methyl-7-oxo-1-azabicyclo[3.2.0]hept-2-ene-2-carboxylic acid

>  <PUBCHEM_IUPAC_SYSTEMATIC_NAME>  (3) 
(4R,5S,6S)-3-[(3S,5S)-5-(dimethylcarbamoyl)pyrrolidin-3-yl]sulfanyl-4-methyl-6-[(1R)-1-oxidanylethyl]-7-oxidanylidene-1-azabicyclo[3.2.0]hept-2-ene-2-carboxylic acid

>  <PUBCHEM_IUPAC_TRADITIONAL_NAME>  (3) 
(4R,5S,6S)-3-[[(3S,5S)-5-(dimethylcarbamoyl)pyrrolidin-3-yl]thio]-6-[(1R)-1-hydroxyethyl]-7-keto-4-methyl-1-azabicyclo[3.2.0]hept-2-ene-2-carboxylic acid

>  <PUBCHEM_IUPAC_INCHI>  (3) 
InChI=1S/C17H25N3O5S/c1-7-12-11(8(2)21)16(23)20(12)13(17(24)25)14(7)26-9-5-10(18-6-9)15(22)19(3)4/h7-12,18,21H,5-6H2,1-4H3,(H,24,25)/t7-,8-,9+,10+,11-,12-/m1/s1

>  <PUBCHEM_IUPAC_INCHIKEY>  (3) 
DMJNNHOOLUXYBV-PQTSNVLCSA-N

>  <PUBCHEM_XLOGP3_AA>  (3) 
-2.4

>  <PUBCHEM_EXACT_MASS>  (3) 
383.15149208

>  <PUBCHEM_MOLECULAR_FORMULA>  (3) 
C17H25N3O5S

>  <PUBCHEM_MOLECULAR_WEIGHT>  (3) 
383.5

>  <PUBCHEM_OPENEYE_CAN_SMILES>  (3) 
CC1C2C(C(=O)N2C(=C1SC3CC(NC3)C(=O)N(C)C)C(=O)O)C(C)O

>  <PUBCHEM_OPENEYE_ISO_SMILES>  (3) 
C[C@@H]1[C@@H]2[C@H](C(=O)N2C(=C1S[C@H]3C[C@H](NC3)C(=O)N(C)C)C(=O)O)[C@@H](C)O

>  <PUBCHEM_CACTVS_TPSA>  (3) 
135

>  <PUBCHEM_MONOISOTOPIC_WEIGHT>  (3) 
383.15149208

>  <PUBCHEM_TOTAL_CHARGE>  (3) 
0

>  <PUBCHEM_HEAVY_ATOM_COUNT>  (3) 
26

>  <PUBCHEM_ATOM_DEF_STEREO_COUNT>  (3) 
6

>  <PUBCHEM_ATOM_UDEF_STEREO_COUNT>  (3) 
0

>  <PUBCHEM_BOND_DEF_STEREO_COUNT>  (3) 
0

>  <PUBCHEM_BOND_UDEF_STEREO_COUNT>  (3) 
0

>  <PUBCHEM_ISOTOPIC_ATOM_COUNT>  (3) 
0

>  <PUBCHEM_COMPONENT_COUNT>  (3) 
1

>  <PUBCHEM_CACTVS_TAUTO_COUNT>  (3) 
-1

>  <PUBCHEM_COORDINATE_TYPE>  (3) 
1
5
255

>  <PUBCHEM_BONDANNOTATIONS>  (3) 
18  1  5
10  27  6
11  28  5
12  17  5
22  24  5
16  3  6

$$$$
